[
    {
        "atomic_number": 1,
        "symbol": "H",
        "name": "Hydrogen",
        "atomic_mass": 1.008,
        "category": "Nonmetal",
        "boiling_point": 20.271,
        "melting_point": 13.99,
        "density": 0.08988
    },
    {
        "atomic_number": 2,
        "symbol": "He",
        "name": "Helium",
        "atomic_mass": 4.0026,
        "category": "Noble Gas",
        "boiling_point": 4.222,
        "melting_point": null,
        "density": 0.1786
    },
    {
        "atomic_number": 3,
        "symbol": "Li",
        "name": "Lithium",
        "atomic_mass": 6.94,
        "category": "Alkali Metal",
        "boiling_point": 1590,
        "melting_point": 453.65,
        "density": 0.534
    },
    {
        "atomic_number": 4,
        "symbol": "Be",
        "name": "Beryllium",
        "atomic_mass": 9.0122,
        "category": "Alkaline Earth Metal",
        "boiling_point": 2744,
        "melting_point": 1560,
        "density": 1.848
    },
    {
        "atomic_number": 5,
        "symbol": "B",
        "name": "Boron",
        "atomic_mass": 10.81,
        "category": "Metalloid",
        "boiling_point": 4000,
        "melting_point": 2076,
        "density": 2.34
    },
    {
        "atomic_number": 6,
        "symbol": "C",
        "name": "Carbon",
        "atomic_mass": 12.011,
        "category": "Nonmetal",
        "boiling_point": 3915,
        "melting_point": 3915,
        "density": 2.267
    },
    {
        "atomic_number": 7,
        "symbol": "N",
        "name": "Nitrogen",
        "atomic_mass": 14.007,
        "category": "Nonmetal",
        "boiling_point": 77.36,
        "melting_point": 63.15,
        "density": 1.2506
    },
    {
        "atomic_number": 8,
        "symbol": "O",
        "name": "Oxygen",
        "atomic_mass": 15.999,
        "category": "Nonmetal",
        "boiling_point": 90.188,
        "melting_point": 54.36,
        "density": 1.429
    },
    {
        "atomic_number": 9,
        "symbol": "F",
        "name": "Fluorine",
        "atomic_mass": 18.998,
        "category": "Halogen",
        "boiling_point": 85.03,
        "melting_point": 53.53,
        "density": 1.696
    },
    {
        "atomic_number": 10,
        "symbol": "Ne",
        "name": "Neon",
        "atomic_mass": 20.18,
        "category": "Noble Gas",
        "boiling_point": 27.104,
        "melting_point": null,
        "density": 0.8999
    },
    {
        "atomic_number": 11,
        "symbol": "Na",
        "name": "Sodium",
        "atomic_mass": 22.99,
        "category": "Alkali Metal",
        "boiling_point": 1156,
        "melting_point": 370.87,
        "density": 0.971
    },
    {
        "atomic_number": 12,
        "symbol": "Mg",
        "name": "Magnesium",
        "atomic_mass": 24.305,
        "category": "Alkaline Earth Metal",
        "boiling_point": 1380,
        "melting_point": 923,
        "density": 1.738
    },
    {
        "atomic_number": 13,
        "symbol": "Al",
        "name": "Aluminum",
        "atomic_mass": 26.982,
        "category": "Post-transition Metal",
        "boiling_point": 2470,
        "melting_point": 933.47,
        "density": 2.7
    },
    {
        "atomic_number": 14,
        "symbol": "Si",
        "name": "Silicon",
        "atomic_mass": 28.085,
        "category": "Metalloid",
        "boiling_point": 2900,
        "melting_point": 1687,
        "density": 2.329
    },
    {
        "atomic_number": 15,
        "symbol": "P",
        "name": "Phosphorus",
        "atomic_mass": 30.974,
        "category": "Nonmetal",
        "boiling_point": 280,
        "melting_point": 317.3,
        "density": 1.82
    },
    {
        "atomic_number": 16,
        "symbol": "S",
        "name": "Sulfur",
        "atomic_mass": 32.06,
        "category": "Nonmetal",
        "boiling_point": 717.8,
        "melting_point": 388.36,
        "density": 2.067
    },
    {
        "atomic_number": 17,
        "symbol": "Cl",
        "name": "Chlorine",
        "atomic_mass": 35.45,
        "category": "Halogen",
        "boiling_point": 239.11,
        "melting_point": 171.6,
        "density": 3.214
    },
    {
        "atomic_number": 18,
        "symbol": "Ar",
        "name": "Argon",
        "atomic_mass": 39.948,
        "category": "Noble Gas",
        "boiling_point": 87.302,
        "melting_point": null,
        "density": 1.784
    },
    {
        "atomic_number": 19,
        "symbol": "K",
        "name": "Potassium",
        "atomic_mass": 39.098,
        "category": "Alkali Metal",
        "boiling_point": 1382,
        "melting_point": 336.7,
        "density": 0.862
    },
    {
        "atomic_number": 20,
        "symbol": "Ca",
        "name": "Calcium",
        "atomic_mass": 40.078,
        "category": "Alkaline Earth Metal",
        "boiling_point": 1757,
        "melting_point": 1115,
        "density": 1.54
    },
    {
        "atomic_number": 21,
        "symbol": "Sc",
        "name": "Scandium",
        "atomic_mass": 44.956,
        "category": "Transition Metal",
        "boiling_point": 2836,
        "melting_point": 1814,
        "density": 2.989
    },
    {
        "atomic_number": 22,
        "symbol": "Ti",
        "name": "Titanium",
        "atomic_mass": 47.867,
        "category": "Transition Metal",
        "boiling_point": 3287,
        "melting_point": 1941,
        "density": 4.506
    },
    {
        "atomic_number": 23,
        "symbol": "V",
        "name": "Vanadium",
        "atomic_mass": 50.942,
        "category": "Transition Metal",
        "boiling_point": 3380,
        "melting_point": 2183,
        "density": 6.11
    },
    {
        "atomic_number": 24,
        "symbol": "Cr",
        "name": "Chromium",
        "atomic_mass": 52,
        "category": "Transition Metal",
        "boiling_point": 2671,
        "melting_point": 2130,
        "density": 7.19
    },
    {
        "atomic_number": 25,
        "symbol": "Mn",
        "name": "Manganese",
        "atomic_mass": 54.938,
        "category": "Transition Metal",
        "boiling_point": 2100,
        "melting_point": 1519,
        "density": 7.43
    },
    {
        "atomic_number": 26,
        "symbol": "Fe",
        "name": "Iron",
        "atomic_mass": 55.845,
        "category": "Transition Metal",
        "boiling_point": 3134,
        "melting_point": 1811,
        "density": 7.874
    },
    {
        "atomic_number": 27,
        "symbol": "Co",
        "name": "Cobalt",
        "atomic_mass": 58.933,
        "category": "Transition Metal",
        "boiling_point": 2927,
        "melting_point": 1768,
        "density": 8.9
    },
    {
        "atomic_number": 28,
        "symbol": "Ni",
        "name": "Nickel",
        "atomic_mass": 58.693,
        "category": "Transition Metal",
        "boiling_point": 2913,
        "melting_point": 1455,
        "density": 8.908
    },
    {
        "atomic_number": 29,
        "symbol": "Cu",
        "name": "Copper",
        "atomic_mass": 63.546,
        "category": "Transition Metal",
        "boiling_point": 2562,
        "melting_point": 1357.77,
        "density": 8.96
    },
    {
        "atomic_number": 30,
        "symbol": "Zn",
        "name": "Zinc",
        "atomic_mass": 65.38,
        "category": "Transition Metal",
        "boiling_point": 1180,
        "melting_point": 692.68,
        "density": 7.14
    },
    {
        "atomic_number": 31,
        "symbol": "Ga",
        "name": "Gallium",
        "atomic_mass": 69.723,
        "category": "Post-transition Metal",
        "boiling_point": 2673,
        "melting_point": 302.91,
        "density": 5.91
    },
    {
        "atomic_number": 32,
        "symbol": "Ge",
        "name": "Germanium",
        "atomic_mass": 72.63,
        "category": "Metalloid",
        "boiling_point": 3106,
        "melting_point": 1211.4,
        "density": 5.323
    },
    {
        "atomic_number": 33,
        "symbol": "As",
        "name": "Arsenic",
        "atomic_mass": 74.922,
        "category": "Metalloid",
        "boiling_point": null,
        "melting_point": 1090,
        "density": 5.776
    },
    {
        "atomic_number": 34,
        "symbol": "Se",
        "name": "Selenium",
        "atomic_mass": 78.971,
        "category": "Nonmetal",
        "boiling_point": 958,
        "melting_point": 494,
        "density": 4.81
    },
    {
        "atomic_number": 35,
        "symbol": "Br",
        "name": "Bromine",
        "atomic_mass": 79.904,
        "category": "Halogen",
        "boiling_point": 332,
        "melting_point": 266,
        "density": 3.1028
    },
    {
        "atomic_number": 36,
        "symbol": "Kr",
        "name": "Krypton",
        "atomic_mass": 83.798,
        "category": "Noble Gas",
        "boiling_point": 119.93,
        "melting_point": null,
        "density": 3.749
    },
    {
        "atomic_number": 37,
        "symbol": "Rb",
        "name": "Rubidium",
        "atomic_mass": 85.468,
        "category": "Alkali Metal",
        "boiling_point": 1382,
        "melting_point": 312.46,
        "density": 1.532
    },
    {
        "atomic_number": 38,
        "symbol": "Sr",
        "name": "Strontium",
        "atomic_mass": 87.62,
        "category": "Alkaline Earth Metal",
        "boiling_point": 1384,
        "melting_point": 1050,
        "density": 2.64
    },
    {
        "atomic_number": 39,
        "symbol": "Y",
        "name": "Yttrium",
        "atomic_mass": 88.905,
        "category": "Transition Metal",
        "boiling_point": 3337,
        "melting_point": 1795,
        "density": 4.469
    },
    {
        "atomic_number": 40,
        "symbol": "Zr",
        "name": "Zirconium",
        "atomic_mass": 91.224,
        "category": "Transition Metal",
        "boiling_point": 4682,
        "melting_point": 2128,
        "density": 6.52
    },
    {
        "atomic_number": 41,
        "symbol": "Nb",
        "name": "Niobium",
        "atomic_mass": 92.906,
        "category": "Transition Metal",
        "boiling_point": 4744,
        "melting_point": 2750,
        "density": 8.57
    },
    {
        "atomic_number": 42,
        "symbol": "Mo",
        "name": "Molybdenum",
        "atomic_mass": 95.95,
        "category": "Transition Metal",
        "boiling_point": 4639,
        "melting_point": 2890,
        "density": 10.28
    },
    {
        "atomic_number": 43,
        "symbol": "Tc",
        "name": "Technetium",
        "atomic_mass": 98,
        "category": "Transition Metal",
        "boiling_point": 4538,
        "melting_point": 2430,
        "density": 11
    },
    {
        "atomic_number": 44,
        "symbol": "Ru",
        "name": "Ruthenium",
        "atomic_mass": 101.07,
        "category": "Transition Metal",
        "boiling_point": 4130,
        "melting_point": 2607,
        "density": 12.37
    },
    {
        "atomic_number": 45,
        "symbol": "Rh",
        "name": "Rhodium",
        "atomic_mass": 102.91,
        "category": "Transition Metal",
        "boiling_point": 3968,
        "melting_point": 1964,
        "density": 12.41
    },
    {
        "atomic_number": 46,
        "symbol": "Pd",
        "name": "Palladium",
        "atomic_mass": 106.42,
        "category": "Transition Metal",
        "boiling_point": 2963,
        "melting_point": 1828.05,
        "density": 12.023
    },
    {
        "atomic_number": 47,
        "symbol": "Ag",
        "name": "Silver",
        "atomic_mass": 107.868,
        "category": "Transition Metal",
        "boiling_point": 2162,
        "melting_point": 1234.93,
        "density": 10.49
    },
    {
        "atomic_number": 48,
        "symbol": "Cd",
        "name": "Cadmium",
        "atomic_mass": 112.41,
        "category": "Transition Metal",
        "boiling_point": 767,
        "melting_point": 594.22,
        "density": 8.65
    },
    {
        "atomic_number": 49,
        "symbol": "In",
        "name": "Indium",
        "atomic_mass": 114.82,
        "category": "Post-transition Metal",
        "boiling_point": 2345,
        "melting_point": 429.75,
        "density": 7.31
    },
    {
        "atomic_number": 50,
        "symbol": "Sn",
        "name": "Tin",
        "atomic_mass": 118.71,
        "category": "Post-transition Metal",
        "boiling_point": 2602,
        "melting_point": 505.08,
        "density": 7.31
    },
    {
        "atomic_number": 51,
        "symbol": "Sb",
        "name": "Antimony",
        "atomic_mass": 121.76,
        "category": "Metalloid",
        "boiling_point": 1587,
        "melting_point": 903.78,
        "density": 6.697
    },
    {
        "atomic_number": 52,
        "symbol": "Te",
        "name": "Tellurium",
        "atomic_mass": 127.6,
        "category": "Metalloid",
        "boiling_point": 988,
        "melting_point": 722.66,
        "density": 6.232
    },
    {
        "atomic_number": 53,
        "symbol": "I",
        "name": "Iodine",
        "atomic_mass": 126.9,
        "category": "Halogen",
        "boiling_point": 184.3,
        "melting_point": 113.7,
        "density": 4.933
    },
    {
        "atomic_number": 54,
        "symbol": "Xe",
        "name": "Xenon",
        "atomic_mass": 131.29,
        "category": "Noble Gas",
        "boiling_point": 165.03,
        "melting_point": null,
        "density": 5.894
    },
    {
        "atomic_number": 55,
        "symbol": "Cs",
        "name": "Cesium",
        "atomic_mass": 132.91,
        "category": "Alkali Metal",
        "boiling_point": 671,
        "melting_point": 301.59,
        "density": 1.93
    },
    {
        "atomic_number": 56,
        "symbol": "Ba",
        "name": "Barium",
        "atomic_mass": 137.33,
        "category": "Alkaline Earth Metal",
        "boiling_point": 1897,
        "melting_point": 1000,
        "density": 3.62
    },
    {
        "atomic_number": 57,
        "symbol": "La",
        "name": "Lanthanum",
        "atomic_mass": 138.91,
        "category": "Lanthanide",
        "boiling_point": 3737,
        "melting_point": 1191,
        "density": 6.162
    },
    {
        "atomic_number": 58,
        "symbol": "Ce",
        "name": "Cerium",
        "atomic_mass": 140.12,
        "category": "Lanthanide",
        "boiling_point": 3233,
        "melting_point": 1071,
        "density": 6.77
    },
    {
        "atomic_number": 59,
        "symbol": "Pr",
        "name": "Praseodymium",
        "atomic_mass": 140.91,
        "category": "Lanthanide",
        "boiling_point": 3290,
        "melting_point": 1204,
        "density": 6.773
    },
    {
        "atomic_number": 60,
        "symbol": "Nd",
        "name": "Neodymium",
        "atomic_mass": 144.24,
        "category": "Lanthanide",
        "boiling_point": 3074,
        "melting_point": 1294,
        "density": 7.007
    },
    {
        "atomic_number": 61,
        "symbol": "Pm",
        "name": "Promethium",
        "atomic_mass": 145,
        "category": "Lanthanide",
        "boiling_point": 3000,
        "melting_point": 1315,
        "density": 7.264
    },
    {
        "atomic_number": 62,
        "symbol": "Sm",
        "name": "Samarium",
        "atomic_mass": 150.36,
        "category": "Lanthanide",
        "boiling_point": 1800,
        "melting_point": 1074,
        "density": 7.52
    },
    {
        "atomic_number": 63,
        "symbol": "Eu",
        "name": "Europium",
        "atomic_mass": 151.98,
        "category": "Lanthanide",
        "boiling_point": 1590,
        "melting_point": 1095,
        "density": 5.243
    },
    {
        "atomic_number": 64,
        "symbol": "Gd",
        "name": "Gadolinium",
        "atomic_mass": 157.25,
        "category": "Lanthanide",
        "boiling_point": 3273,
        "melting_point": 1585,
        "density": 8.23
    },
    {
        "atomic_number": 65,
        "symbol": "Tb",
        "name": "Terbium",
        "atomic_mass": 158.93,
        "category": "Lanthanide",
        "boiling_point": 3312,
        "melting_point": 1629,
        "density": 8.229
    },
    {
        "atomic_number": 66,
        "symbol": "Dy",
        "name": "Dysprosium",
        "atomic_mass": 162.5,
        "category": "Lanthanide",
        "boiling_point": 2840,
        "melting_point": 1412,
        "density": 8.55
    },
    {
        "atomic_number": 67,
        "symbol": "Ho",
        "name": "Holmium",
        "atomic_mass": 164.93,
        "category": "Lanthanide",
        "boiling_point": 3000,
        "melting_point": 1474,
        "density": 8.795
    },
    {
        "atomic_number": 68,
        "symbol": "Er",
        "name": "Erbium",
        "atomic_mass": 167.26,
        "category": "Lanthanide",
        "boiling_point": 3141,
        "melting_point": 1529,
        "density": 9.066
    },
    {
        "atomic_number": 69,
        "symbol": "Tm",
        "name": "Thulium",
        "atomic_mass": 168.93,
        "category": "Lanthanide",
        "boiling_point": 1950,
        "melting_point": 1818,
        "density": 9.321
    },
    {
        "atomic_number": 70,
        "symbol": "Yb",
        "name": "Ytterbium",
        "atomic_mass": 173.04,
        "category": "Lanthanide",
        "boiling_point": 1196,
        "melting_point": 1097,
        "density": 6.965
    },
    {
        "atomic_number": 71,
        "symbol": "Lu",
        "name": "Lutetium",
        "atomic_mass": 175,
        "category": "Lanthanide",
        "boiling_point": 3315,
        "melting_point": 1936,
        "density": 9.841
    },
    {
        "atomic_number": 72,
        "symbol": "Hf",
        "name": "Hafnium",
        "atomic_mass": 178.49,
        "category": "Transition Metal",
        "boiling_point": 4876,
        "melting_point": 2506,
        "density": 13.31
    },
    {
        "atomic_number": 73,
        "symbol": "Ta",
        "name": "Tantalum",
        "atomic_mass": 180.95,
        "category": "Transition Metal",
        "boiling_point": 5731,
        "melting_point": 3017,
        "density": 16.654
    },
    {
        "atomic_number": 74,
        "symbol": "W",
        "name": "Tungsten",
        "atomic_mass": 183.84,
        "category": "Transition Metal",
        "boiling_point": 5927,
        "melting_point": 3422,
        "density": 19.25
    },
    {
        "atomic_number": 75,
        "symbol": "Re",
        "name": "Rhenium",
        "atomic_mass": 186.21,
        "category": "Transition Metal",
        "boiling_point": 5869,
        "melting_point": 3186,
        "density": 21.02
    },
    {
        "atomic_number": 76,
        "symbol": "Os",
        "name": "Osmium",
        "atomic_mass": 190.23,
        "category": "Transition Metal",
        "boiling_point": 5027,
        "melting_point": 3033,
        "density": 22.59
    },
    {
        "atomic_number": 77,
        "symbol": "Ir",
        "name": "Iridium",
        "atomic_mass": 192.22,
        "category": "Transition Metal",
        "boiling_point": 4446,
        "melting_point": 2410,
        "density": 22.56
    },
    {
        "atomic_number": 78,
        "symbol": "Pt",
        "name": "Platinum",
        "atomic_mass": 195.08,
        "category": "Transition Metal",
        "boiling_point": 3825,
        "melting_point": 1772,
        "density": 21.45
    },
    {
        "atomic_number": 79,
        "symbol": "Au",
        "name": "Gold",
        "atomic_mass": 196.97,
        "category": "Transition Metal",
        "boiling_point": 2970,
        "melting_point": 1064,
        "density": 19.32
    },
    {
        "atomic_number": 80,
        "symbol": "Hg",
        "name": "Mercury",
        "atomic_mass": 200.59,
        "category": "Transition Metal",
        "boiling_point": 356.73,
        "melting_point": -38.83,
        "density": 13.534
    },
    {
        "atomic_number": 81,
        "symbol": "Tl",
        "name": "Thallium",
        "atomic_mass": 204.38,
        "category": "Post-transition Metal",
        "boiling_point": 1461,
        "melting_point": 304,
        "density": 11.85
    },
    {
        "atomic_number": 82,
        "symbol": "Pb",
        "name": "Lead",
        "atomic_mass": 207.2,
        "category": "Post-transition Metal",
        "boiling_point": 1749,
        "melting_point": 327.46,
        "density": 11.34
    },
    {
        "atomic_number": 83,
        "symbol": "Bi",
        "name": "Bismuth",
        "atomic_mass": 208.98,
        "category": "Post-transition Metal",
        "boiling_point": 1564,
        "melting_point": 271.3,
        "density": 9.78
    },
    {
        "atomic_number": 84,
        "symbol": "Po",
        "name": "Polonium",
        "atomic_mass": 209.98,
        "category": "Metalloid",
        "boiling_point": 962,
        "melting_point": 254,
        "density": 9.32
    },
    {
        "atomic_number": 85,
        "symbol": "At",
        "name": "Astatine",
        "atomic_mass": 210,
        "category": "Metalloid",
        "boiling_point": 337,
        "melting_point": 302,
        "density": 6.2
    },
    {
        "atomic_number": 86,
        "symbol": "Rn",
        "name": "Radon",
        "atomic_mass": 222,
        "category": "Noble Gas",
        "boiling_point": -61.8,
        "melting_point": -71,
        "density": 0.00973
    },
    {
        "atomic_number": 87,
        "symbol": "Fr",
        "name": "Francium",
        "atomic_mass": 223,
        "category": "Alkali Metal",
        "boiling_point": 927,
        "melting_point": 27,
        "density": 1.87
    },
    {
        "atomic_number": 88,
        "symbol": "Ra",
        "name": "Radium",
        "atomic_mass": 226,
        "category": "Alkaline Earth Metal",
        "boiling_point": 1413,
        "melting_point": 700,
        "density": 5.5
    },
    {
        "atomic_number": 89,
        "symbol": "Ac",
        "name": "Actinium",
        "atomic_mass": 227,
        "category": "Actinide",
        "boiling_point": 3273,
        "melting_point": 1050,
        "density": 10.07
    },
    {
        "atomic_number": 90,
        "symbol": "Th",
        "name": "Thorium",
        "atomic_mass": 232.04,
        "category": "Actinide",
        "boiling_point": 4790,
        "melting_point": 1750,
        "density": 11.72
    },
    {
        "atomic_number": 91,
        "symbol": "Pa",
        "name": "Protactinium",
        "atomic_mass": 231.04,
        "category": "Actinide",
        "boiling_point": 4300,
        "melting_point": 1572,
        "density": 15.37
    },
    {
        "atomic_number": 92,
        "symbol": "U",
        "name": "Uranium",
        "atomic_mass": 238.03,
        "category": "Actinide",
        "boiling_point": 4131,
        "melting_point": 1132,
        "density": 18.95
    },
    {
        "atomic_number": 93,
        "symbol": "Np",
        "name": "Neptunium",
        "atomic_mass": 237,
        "category": "Actinide",
        "boiling_point": 4175,
        "melting_point": 644,
        "density": 20.45
    },
    {
        "atomic_number": 94,
        "symbol": "Pu",
        "name": "Plutonium",
        "atomic_mass": 244,
        "category": "Actinide",
        "boiling_point": 3500,
        "melting_point": 640,
        "density": 19.86
    },
    {
        "atomic_number": 95,
        "symbol": "Am",
        "name": "Americium",
        "atomic_mass": 243,
        "category": "Actinide",
        "boiling_point": 2880,
        "melting_point": 1176,
        "density": 13.67
    },
    {
        "atomic_number": 96,
        "symbol": "Cm",
        "name": "Curium",
        "atomic_mass": 247,
        "category": "Actinide",
        "boiling_point": 3383,
        "melting_point": 1340,
        "density": 13.51
    },
    {
        "atomic_number": 97,
        "symbol": "Bk",
        "name": "Berkelium",
        "atomic_mass": 247,
        "category": "Actinide",
        "boiling_point": 2900,
        "melting_point": 986,
        "density": 14.78
    },
    {
        "atomic_number": 98,
        "symbol": "Cf",
        "name": "Californium",
        "atomic_mass": 251,
        "category": "Actinide",
        "boiling_point": 1470,
        "melting_point": 900,
        "density": 15.1
    },
    {
        "atomic_number": 99,
        "symbol": "Es",
        "name": "Einsteinium",
        "atomic_mass": 252,
        "category": "Actinide",
        "boiling_point": 1269,
        "melting_point": 1133,
        "density": 8.84
    },
    {
        "atomic_number": 100,
        "symbol": "Fm",
        "name": "Fermium",
        "atomic_mass": 257,
        "category": "Actinide",
        "boiling_point": 1800,
        "melting_point": 1527,
        "density": 9.7
    },
    {
        "atomic_number": 101,
        "symbol": "Md",
        "name": "Mendelevium",
        "atomic_mass": 258,
        "category": "Actinide",
        "boiling_point": 1100,
        "melting_point": 829,
        "density": 10.3
    },
    {
        "atomic_number": 102,
        "symbol": "No",
        "name": "Nobelium",
        "atomic_mass": 259,
        "category": "Actinide",
        "boiling_point": 1500,
        "melting_point": 1100,
        "density": 9.9
    },
    {
        "atomic_number": 103,
        "symbol": "Lr",
        "name": "Lawrencium",
        "atomic_mass": 262,
        "category": "Actinide",
        "boiling_point": 1627,
        "melting_point": 1627,
        "density": 15.6
    },
    {
        "atomic_number": 104,
        "symbol": "Rf",
        "name": "Rutherfordium",
        "atomic_mass": 267,
        "category": "Transition Metal",
        "boiling_point": 5800,
        "melting_point": 2400,
        "density": 23.1
    },
    {
        "atomic_number": 105,
        "symbol": "Db",
        "name": "Dubnium",
        "atomic_mass": 270,
        "category": "Transition Metal",
        "boiling_point": 6000,
        "melting_point": 2800,
        "density": 29
    },
    {
        "atomic_number": 106,
        "symbol": "Sg",
        "name": "Seaborgium",
        "atomic_mass": 271,
        "category": "Transition Metal",
        "boiling_point": 6700,
        "melting_point": 2800,
        "density": 35
    },
    {
        "atomic_number": 107,
        "symbol": "Bh",
        "name": "Bohrium",
        "atomic_mass": 270,
        "category": "Transition Metal",
        "boiling_point": 7100,
        "melting_point": 2800,
        "density": 37
    },
    {
        "atomic_number": 108,
        "symbol": "Hs",
        "name": "Hassium",
        "atomic_mass": 277,
        "category": "Transition Metal",
        "boiling_point": 7000,
        "melting_point": 2800,
        "density": 41
    },
    {
        "atomic_number": 109,
        "symbol": "Mt",
        "name": "Meitnerium",
        "atomic_mass": 278,
        "category": "Transition Metal",
        "boiling_point": 7100,
        "melting_point": 2800,
        "density": 40
    },
    {
        "atomic_number": 110,
        "symbol": "Ds",
        "name": "Darmstadtium",
        "atomic_mass": 281,
        "category": "Transition Metal",
        "boiling_point": 7100,
        "melting_point": 2800,
        "density": 41
    },
    {
        "atomic_number": 111,
        "symbol": "Rg",
        "name": "Roentgenium",
        "atomic_mass": 280,
        "category": "Transition Metal",
        "boiling_point": 7100,
        "melting_point": 2800,
        "density": 41
    },
    {
        "atomic_number": 112,
        "symbol": "Cn",
        "name": "Copernicium",
        "atomic_mass": 285,
        "category": "Transition Metal",
        "boiling_point": 7100,
        "melting_point": 2800,
        "density": 42
    },
    {
        "atomic_number": 113,
        "symbol": "Nh",
        "name": "Nihonium",
        "atomic_mass": 284,
        "category": "Post-transition Metal",
        "boiling_point": 7100,
        "melting_point": 2800,
        "density": 42
    },
    {
        "atomic_number": 114,
        "symbol": "Fl",
        "name": "Flerovium",
        "atomic_mass": 289,
        "category": "Post-transition Metal",
        "boiling_point": 7100,
        "melting_point": 2800,
        "density": 42
    },
    {
        "atomic_number": 115,
        "symbol": "Mc",
        "name": "Moscovium",
        "atomic_mass": 288,
        "category": "Post-transition Metal",
        "boiling_point": 7100,
        "melting_point": 2800,
        "density": 43
    },
    {
        "atomic_number": 116,
        "symbol": "Lv",
        "name": "Livermorium",
        "atomic_mass": 293,
        "category": "Post-transition Metal",
        "boiling_point": 7100,
        "melting_point": 2800,
        "density": 44
    },
    {
        "atomic_number": 117,
        "symbol": "Ts",
        "name": "Tennessine",
        "atomic_mass": 294,
        "category": "Halogen",
        "boiling_point": 7100,
        "melting_point": 2800,
        "density": 45
    },
    {
        "atomic_number": 118,
        "symbol": "Og",
        "name": "Oganesson",
        "atomic_mass": 294,
        "category": "Noble Gas",
        "boiling_point": 7100,
        "melting_point": 2800,
        "density": 47
    }
]